35   
Scan Cycle 1/19 ; Dihedral 1-14-15-16 = 180.00 ; Iteration 18 Energy -1710.55973553
C        4.4113591823    0.0761142887    0.1500515969
C        4.6574883567    1.4490771208    0.2981410582
H        3.8567850171    2.1843320175    0.3899604266
N        5.8964117960    1.9258659402    0.3356452323
C        6.9368556279    1.0819327009    0.2308904031
H        7.9322036358    1.5382246746    0.2687560148
C        6.8074530171   -0.2951437641    0.0827860582
H        7.6865236045   -0.9381683592    0.0031057762
C        5.5094025577   -0.8221082062    0.0404424503
C        4.9686517091   -2.1444353926   -0.0956577142
H        5.5223844240   -3.0740789072   -0.2020576936
C        3.6093061243   -2.0182976692   -0.0666562541
H        2.8476888493   -2.7906471213   -0.1418357116
N        3.2372437053   -0.6831488445    0.0816292084
C        1.9140332426   -0.2470682509    0.1366033069
S        0.6250629280   -1.4265635921    0.0260329732
C        1.4075831797    1.0285696148    0.2677052553
H        2.0126519920    1.9246076174    0.3519305188
C       -0.0118077718    1.0563481488    0.2862505472
H       -0.5876441554    1.9764904335    0.3935867855
C       -0.6020184449   -0.1834505261    0.1688780870
C       -2.0016282189   -0.5396660856    0.1500765613
C       -2.5693618892   -1.8064084699    0.1961777958
H       -1.9769229141   -2.7198429550    0.2638418368
C       -3.9817358859   -1.7829283030    0.1624822911
H       -4.6269153108   -2.6609665915    0.1930688683
S       -3.2324254444    0.6906465884    0.0554975265
C       -4.4962258421   -0.5050296612    0.0914039322
C       -5.9213357255   -0.1552056754    0.0474475044
O       -6.8261793704   -0.9577732620    0.0647615026
O       -6.1045722757    1.1803234980   -0.0159068404
C       -7.4574194478    1.6260599010   -0.0638927113
H       -8.0080918741    1.3025448585    0.8325999096
H       -7.4175944193    2.7211441479   -0.1119406457
H       -7.9711010956    1.2229854329   -0.9500415534
35   
Scan Cycle 2/19 ; Dihedral 1-14-15-16 = 190.00 ; Iteration 13 Energy -1710.56067830
C        4.3992156212    0.0379312295    0.2180424028
C        4.6201162170    1.3606630648    0.6269507241
H        3.8026132344    2.0236956935    0.9194038288
N        5.8488866780    1.8585661748    0.7018297330
C        6.8992441307    1.0784316420    0.3912336039
H        7.8857954487    1.5489706240    0.4669339996
C        6.7935363900   -0.2548446256    0.0075721754
H        7.6832822388   -0.8492230210   -0.2107867635
C        5.5059570820   -0.8039282160   -0.0770505616
C        4.9802801900   -2.1015003685   -0.3956123713
H        5.5434407337   -2.9895414186   -0.6722897949
C        3.6203132362   -2.0127136116   -0.2937191627
H        2.8635776377   -2.7704724349   -0.4832561001
N        3.2370492273   -0.7268960859    0.0834036923
C        1.9161558462   -0.2855250260    0.1366800432
S        0.6223991908   -1.4602551036    0.2037375977
C        1.4225567605    1.0006715662    0.0931865615
H        2.0432969464    1.8871452394    0.0015224053
C        0.0038851031    1.0423277591    0.1344539432
H       -0.5665611144    1.9719353913    0.1194032975
C       -0.5946988584   -0.1985466578    0.1900714074
C       -1.9972057306   -0.5425790561    0.2297024435
C       -2.5735129380   -1.7875681655    0.4458599444
H       -1.9869626015   -2.6886193388    0.6302706681
C       -3.9859682490   -1.7576007620    0.4182380587
H       -4.6370970865   -2.6187866876    0.5683128557
S       -3.2200128480    0.6745634188   -0.0167318418
C       -4.4918030825   -0.4958979449    0.1838028581
C       -5.9148079868   -0.1429862729    0.1050595972
O       -6.8252182443   -0.9289375603    0.2334156264
O       -6.0886857538    1.1743022188   -0.1305438422
C       -7.4385506751    1.6215904864   -0.2260079672
H       -7.9837733866    1.4226227614    0.7092603436
H       -7.3908737582    2.7006381694   -0.4169790155
H       -7.9628885203    1.1106785571   -1.0479735636
35   
Scan Cycle 3/19 ; Dihedral 1-14-15-16 = 200.00 ; Iteration 13 Energy -1710.56176921
C        4.3865848088    0.0200077325    0.2169431583
C        4.5772409624    1.3140984547    0.7198429181
H        3.7377887829    1.9516215956    1.0102310824
N        5.7978810374    1.8099810761    0.8842582817
C        6.8656935246    1.0536659350    0.5708366752
H        7.8450117686    1.5208564453    0.7228664017
C        6.7866833421   -0.2510803345    0.0937980694
H        7.6899749722   -0.8250531259   -0.1236074387
C        5.5075713665   -0.7988102849   -0.0857277713
C        4.9994227004   -2.0720442158   -0.5135860521
H        5.5764327414   -2.9387081474   -0.8272138140
C        3.6349794557   -1.9905723052   -0.4652428396
H        2.8854776893   -2.7294964995   -0.7400283047
N        3.2350627022   -0.7332448948   -0.0187735355
C        1.9146484898   -0.2926606839    0.0336179839
S        0.6258108105   -1.4573254587    0.2264819749
C        1.4229102673    0.9887630760   -0.0853543699
H        2.0479370704    1.8619017811   -0.2558223061
C        0.0059347305    1.0364290803   -0.0088602228
H       -0.5657774360    1.9629175909   -0.0764134604
C       -0.5906326164   -0.1976665880    0.1476742368
C       -1.9929008997   -0.5344092130    0.2390535019
C       -2.5661458997   -1.7605726651    0.5495993576
H       -1.9770980988   -2.6490432016    0.7811371557
C       -3.9788543802   -1.7287467791    0.5493782423
H       -4.6278265052   -2.5762871170    0.7698921590
S       -3.2189686748    0.6670159148   -0.0619476066
C       -4.4876840255   -0.4839738744    0.2422573534
C       -5.9117491961   -0.1331867683    0.1702158910
O       -6.8201125660   -0.9065614658    0.3694381372
O       -6.0888473169    1.1659640511   -0.1483897264
C       -7.4399228434    1.6096012403   -0.2447969427
H       -7.9653122288    1.4746027305    0.7129628993
H       -7.3948882981    2.6734562033   -0.5079530450
H       -7.9822326269    1.0466528836   -1.0197506282
35   
Scan Cycle 4/19 ; Dihedral 1-14-15-16 = 210.00 ; Iteration 20 Energy -1710.56257640
C        4.2768966808    0.0456737939    0.1697169453
C        4.4427269672    1.3116231507    0.7460323811
H        3.5875632038    1.9386048356    1.0154545480
N        5.6542798698    1.7901391575    1.0021682763
C        6.7343478749    1.0425652026    0.7074172591
H        7.7059741562    1.4941327758    0.9365382992
C        6.6769572309   -0.2339480183    0.1566322165
H        7.5893492867   -0.7996448176   -0.0438967704
C        5.4071565471   -0.7641932087   -0.1199455800
C        4.9138383931   -2.0071347179   -0.6441318736
H        5.5011945135   -2.8597191259   -0.9766821247
C        3.5482225538   -1.9166337329   -0.6614404929
H        2.8060065225   -2.6309478624   -1.0115120484
N        3.1362090386   -0.6817437645   -0.1690883463
C        1.8162613730   -0.2407493650   -0.1150260528
S        0.5337391063   -1.3856947729    0.1958694172
C        1.3262036705    1.0339420674   -0.2910216622
H        1.9538911595    1.8909294960   -0.5269583303
C       -0.0873418820    1.0927663445   -0.1723969544
H       -0.6597506658    2.0152372985   -0.2780691938
C       -0.6810770342   -0.1288036646    0.0744140089
C       -2.0821122367   -0.4526346324    0.2217489254
C       -2.6512106013   -1.6555683395    0.6182461051
H       -2.0593770981   -2.5320706486    0.8855630225
C       -4.0633596360   -1.6166855620    0.6531303335
H       -4.7093039639   -2.4466157058    0.9396158853
S       -3.3113521019    0.7354256219   -0.1165619432
C       -4.5755134192   -0.3892641563    0.2873354893
C       -5.9998874232   -0.0358484071    0.2322706266
O       -6.9052728445   -0.7917920256    0.4998600345
O       -6.1805380365    1.2433923483   -0.1566421387
C       -7.5320838175    1.6878170930   -0.2433724817
H       -8.0325468838    1.6110743984    0.7339616887
H       -7.4899844510    2.7344384062   -0.5687240119
H       -8.0965947604    1.0838681305   -0.9700901549
35   
Scan Cycle 5/19 ; Dihedral 1-14-15-16 = 220.00 ; Iteration 20 Energy -1710.56298251
C        4.2185654880   -0.0155495376    0.1094592348
C        4.3657280521    1.2158360604    0.7595728641
H        3.5018927209    1.8399356698    1.0097401760
N        5.5668143296    1.6624712012    1.1060151399
C        6.6523632652    0.9153466920    0.8283297563
H        7.6153987335    1.3394483200    1.1336153930
C        6.6109832667   -0.3273239435    0.2036605745
H        7.5272152526   -0.8921923268    0.0188118985
C        5.3517697712   -0.8244828811   -0.1687990803
C        4.8698953210   -2.0270670054   -0.7894688349
H        5.4626645398   -2.8681556066   -1.1412307737
C        3.5074550165   -1.9140702497   -0.8709604382
H        2.7722416364   -2.5957052550   -1.2938215692
N        3.0890737479   -0.7016094047   -0.3331221029
C        1.7699070967   -0.2581221112   -0.2713200148
S        0.4944263822   -1.3756418144    0.1483909950
C        1.2828796809    1.0106138202   -0.4881709086
H        1.9124367445    1.8496926518   -0.7801493043
C       -0.1248315400    1.0870239413   -0.3212144077
H       -0.6962053607    2.0070992668   -0.4505368854
C       -0.7156206085   -0.1177704442    0.0060102152
C       -2.1139340925   -0.4224205942    0.2133582467
C       -2.6765319466   -1.5914662358    0.7077318476
H       -2.0809239509   -2.4504869250    1.0196817351
C       -4.0870612930   -1.5415965166    0.7786495035
H       -4.7283111661   -2.3455382362    1.1399885467
S       -3.3469008434    0.7466132786   -0.1733916772
C       -4.6037514585   -0.3391244519    0.3429524981
C       -6.0278038936    0.0186249605    0.3031316364
O       -6.9284206602   -0.7115633430    0.6470967675
O       -6.2136366906    1.2690603929   -0.1678639868
C       -7.5651653061    1.7150715492   -0.2477064503
H       -8.0383630156    1.7088706494    0.7460518128
H       -7.5275045736    2.7365382549   -0.6454520446
H       -8.1523768381    1.0661285325   -0.9152257016
35   
Scan Cycle 6/19 ; Dihedral 1-14-15-16 = 230.00 ; Iteration 20 Energy -1710.56301920
C        4.1678595991   -0.0991404295    0.0372230164
C        4.2922201183    1.0950383716    0.7565904666
H        3.4212124697    1.7172743049    0.9879949222
N        5.4777572205    1.5066943645    1.1890101995
C        6.5681344256    0.7595614516    0.9288986532
H        7.5181911285    1.1535586372    1.3066502251
C        6.5473683438   -0.4467130847    0.2355604575
H        7.4668010248   -1.0115356694    0.0670494250
C        5.3041758492   -0.9071478119   -0.2283149719
C        4.8401605692   -2.0657969846   -0.9399832351
H        5.4401262957   -2.8945794692   -1.3084546135
C        3.4844694559   -1.9282984852   -1.0835000240
H        2.7613831623   -2.5763492465   -1.5747521367
N        3.0556873479   -0.7395780591   -0.5043496476
C        1.7346728761   -0.2994293114   -0.4362462522
S        0.4740792543   -1.3881655862    0.0912179336
C        1.2435779165    0.9588406212   -0.6961052604
H        1.8689665905    1.7800249403   -1.0444237234
C       -0.1566720196    1.0501797039   -0.4816801797
H       -0.7311639610    1.9644643632   -0.6356967629
C       -0.7365878104   -0.1351737727   -0.0717144104
C       -2.1284120350   -0.4220578373    0.1990780305
C       -2.6755643250   -1.5538695799    0.7878592305
H       -2.0705670688   -2.3913788826    1.1378772027
C       -4.0831515203   -1.4953740293    0.9001527351
H       -4.7131867921   -2.2714053314    1.3347860732
S       -3.3720992297    0.7218134431   -0.2259455334
C       -4.6123627019   -0.3230333982    0.4018277862
C       -6.0369126336    0.0355287969    0.3837513370
O       -6.9263752238   -0.6676553151    0.8042321065
O       -6.2366852447    1.2522275051   -0.1633346201
C       -7.5897918298    1.6959323140   -0.2297118495
H       -8.0310198147    1.7570506939    0.7767970157
H       -7.5639531654    2.6886208173   -0.6954281302
H       -8.1984065102    1.0057966570   -0.8337024172
35   
Scan Cycle 7/19 ; Dihedral 1-14-15-16 = 240.00 ; Iteration 26 Energy -1710.56276428
C        4.1495676660   -0.2081974290   -0.0340587278
C        4.2559349314    0.9343704203    0.7664164960
H        3.3823976913    1.5551582621    0.9940632486
N        5.4255967677    1.2968068528    1.2787341903
C        6.5160607467    0.5491420599    1.0190318992
H        7.4530790183    0.9007654010    1.4650578998
C        6.5113279998   -0.6074111532    0.2451951054
H        7.4304546203   -1.1737065674    0.0798318906
C        5.2845454240   -1.0156733553   -0.3043346396
C        4.8355684114   -2.1141092728   -1.1147693997
H        5.4390200524   -2.9264585084   -1.5130411783
C        3.4894279055   -1.9427147375   -1.3075230549
H        2.7773846724   -2.5449199780   -1.8684176337
N        3.0545888855   -0.7867428566   -0.6705722460
C        1.7325391381   -0.3467399521   -0.5916398529
S        0.4880155224   -1.4005311724    0.0372957053
C        1.2372861295    0.8999927311   -0.8923836226
H        1.8573871709    1.7005897291   -1.2949564268
C       -0.1537085134    1.0106054264   -0.6321470285
H       -0.7305253693    1.9194367345   -0.8079827188
C       -0.7213457357   -0.1506155197   -0.1419712511
C       -2.1044570823   -0.4142909734    0.1930222269
C       -2.6315336921   -1.4961348011    0.8845497750
H       -2.0145748439   -2.3039109893    1.2805046176
C       -4.0350870614   -1.4269841406    1.0358246920
H       -4.6505680717   -2.1656150679    1.5493178067
S       -3.3616847849    0.6944211900   -0.2815544514
C       -4.5804142276   -0.2959989292    0.4645521259
C       -6.0054072822    0.0624455364    0.4633648847
O       -6.8803828968   -0.6048400100    0.9647155800
O       -6.2231334660    1.2333325425   -0.1697104484
C       -7.5780054287    1.6730939500   -0.2276619490
H       -7.9871672001    1.8129466140    0.7845076837
H       -7.5674259387    2.6265945233   -0.7695937561
H       -8.2049152034    0.9392663518   -0.7567657962
35   
Scan Cycle 8/19 ; Dihedral 1-14-15-16 = 250.00 ; Iteration 25 Energy -1710.56232773
C        4.1471515221   -0.3177896700   -0.0875183355
C        4.2303012417    0.7592634867    0.8009536604
H        3.3523776575    1.3704993065    1.0388064109
N        5.3818432364    1.0689707191    1.3840761592
C        6.4753700018    0.3308908565    1.1093209344
H        7.3970991338    0.6366169116    1.6168435640
C        6.4922684795   -0.7620739010    0.2479772829
H        7.4133735700   -1.3225206887    0.0737706288
C        5.2845955765   -1.1139614650   -0.3781467119
C        4.8570816276   -2.1390477472   -1.2903205901
H        5.4680399088   -2.9244339273   -1.7292539219
C        3.5204311960   -1.9371563793   -1.5184524279
H        2.8232252680   -2.4869671629   -2.1476507935
N        3.0730576418   -0.8286376788   -0.8102529291
C        1.7484799477   -0.3922259187   -0.7222590849
S        0.5268801418   -1.4079998095    0.0080722601
C        1.2401114990    0.8336321751   -1.0788907474
H        1.8486614475    1.6105465528   -1.5415456645
C       -0.1420673588    0.9592393676   -0.7815497077
H       -0.7269145364    1.8559574123   -0.9898361884
C       -0.6887310476   -0.1713150110   -0.2026169558
C       -2.0596319190   -0.4125395470    0.1961375801
C       -2.5573543515   -1.4350556169    0.9914384425
H       -1.9224432131   -2.2034882124    1.4344711895
C       -3.9561217724   -1.3595575868    1.1801096016
H       -4.5504821464   -2.0550823291    1.7725946143
S       -3.3382548551    0.6467424220   -0.3305219042
C       -4.5263266952   -0.2826782885    0.5334849050
C       -5.9534799962    0.0679054330    0.5465412021
O       -6.8076709342   -0.5594171984    1.1286442963
O       -6.1988097626    1.1806991143   -0.1747536451
C       -7.5580597554    1.6077506073   -0.2271695530
H       -7.9371057953    1.8296949242    0.7820365521
H       -7.5708782595    2.5126980768   -0.8467226194
H       -8.1953849048    0.8293311828   -0.6736231180
35   
Scan Cycle 9/19 ; Dihedral 1-14-15-16 = 260.00 ; Iteration 26 Energy -1710.56189664
C        4.1454324730   -0.4436433222   -0.1486707097
C        4.2043593017    0.5445001403    0.8391273236
H        3.3192738302    1.1315655956    1.1099438511
N        5.3405273125    0.7963025888    1.4776460951
C        6.4411597226    0.0856656879    1.1614719369
H        7.3494570867    0.3400524726    1.7191114121
C        6.4814913958   -0.9196764767    0.1998398726
H        7.4079814245   -1.4608192432   -0.0044047145
C        5.2904333538   -1.2089288386   -0.4875195166
C        4.8862925623   -2.1380186281   -1.5071407364
H        5.5082861676   -2.8777908673   -2.0058362459
C        3.5551763508   -1.9126494236   -1.7466286557
H        2.8726183226   -2.3984379080   -2.4411437379
N        3.0901876718   -0.8789072627   -0.9432267134
C        1.7636557362   -0.4452460417   -0.8441315086
S        0.5716529227   -1.4144734298   -0.0079289480
C        1.2324557126    0.7451115960   -1.2774657414
H        1.8227744099    1.4906116801   -1.8103055701
C       -0.1418734391    0.8827929549   -0.9508877757
H       -0.7407977080    1.7580827496   -1.2050656227
C       -0.6584147040   -0.2039396835   -0.2687349629
C       -2.0127989782   -0.4181035148    0.1980483359
C       -2.4714127581   -1.3637169920    1.1039801419
H       -1.8127566741   -2.0801825513    1.5966106094
C       -3.8639274817   -1.2819341843    1.3326775943
H       -4.4300564607   -1.9220636859    2.0092739910
S       -3.3202433068    0.5747434501   -0.3837061957
C       -4.4677157734   -0.2770242987    0.6056509520
C       -5.8978772222    0.0610846364    0.6336262294
O       -6.7246882759   -0.5143792476    1.3022542057
O       -6.1799072736    1.0968422905   -0.1825601093
C       -7.5451054736    1.5053541371   -0.2296608808
H       -7.8931478463    1.8205780998    0.7657855372
H       -7.5889061170    2.3460299162   -0.9327012047
H       -8.1876128005    0.6820366304   -0.5771606390
35   
Scan Cycle 10/19 ; Dihedral 1-14-15-16 = 270.00 ; Iteration 13 Energy -1710.56167324
C        4.1298135042   -0.5102948476   -0.1201382161
C        4.1488904773    0.3593028063    0.9748820240
H        3.2462947505    0.8943347761    1.2920844464
N        5.2672660277    0.5577696859    1.6616555238
C        6.3883955671   -0.0911935294    1.2894876192
H        7.2802123664    0.1135955718    1.8923331214
C        6.4688869132   -0.9766064774    0.2186089017
H        7.4110283133   -1.4712008259   -0.0277925210
C        5.2977832449   -1.2065113202   -0.5234167181
C        4.9342310868   -2.0116108381   -1.6574061842
H        5.5814286617   -2.6744108303   -2.2272457562
C        3.6031641059   -1.7849760283   -1.8967872301
H        2.9439038054   -2.1968834157   -2.6582546723
N        3.0992645233   -0.8705096225   -0.9802381849
C        1.7698563968   -0.4415111898   -0.8858226788
S        0.6071273032   -1.3520001866    0.0517101800
C        1.2052045445    0.6839702314   -1.4340708008
H        1.7736421413    1.3850928125   -2.0452639429
C       -0.1684203983    0.8240255781   -1.1057427782
H       -0.7890699642    1.6581373752   -1.4350586561
C       -0.6498001077   -0.1958331280   -0.3045684961
C       -1.9889582843   -0.3795097050    0.2168198372
C       -2.4089297516   -1.2289018335    1.2302947085
H       -1.7260177267   -1.8779645638    1.7799759742
C       -3.7969323699   -1.1440629070    1.4841655972
H       -4.3354120621   -1.7160944566    2.2397217167
S       -3.3271290704    0.5247233817   -0.4350162429
C       -4.4355470855   -0.2330332920    0.6686070431
C       -5.8706751066    0.0837383446    0.6954537538
O       -6.6712947074   -0.4289480741    1.4423846781
O       -6.1900098461    1.0208628567   -0.2201132200
C       -7.5630904008    1.4007469122   -0.2771004760
H       -7.8938022154    1.8162906681    0.6869305965
H       -7.6381625544    2.1597300588   -1.0652792112
H       -8.1984317085    0.5348580038   -0.5179219320
35   
Scan Cycle 11/19 ; Dihedral 1-14-15-16 = 280.00 ; Iteration 13 Energy -1710.56187212
C        4.1154304759   -0.5757612037   -0.0711705948
C        4.0948588099    0.1417488388    1.1293018570
H        3.1723119055    0.6014323406    1.5020849227
N        5.1988773539    0.2821856300    1.8525268964
C        6.3445277789   -0.2767160707    1.4148021470
H        7.2222164149   -0.1275327439    2.0536223975
C        6.4660326828   -1.0066119819    0.2360046467
H        7.4269194915   -1.4325275436   -0.0610518191
C        5.3116169805   -1.1700813403   -0.5484649600
C        4.9906584892   -1.8169253373   -1.7912665782
H        5.6666878649   -2.3739352826   -2.4359399207
C        3.6556352099   -1.6021738609   -2.0191967961
H        3.0197877789   -1.9244519166   -2.8413175513
N        3.1066600941   -0.8521690064   -0.9864127355
C        1.7775852493   -0.4229319042   -0.8983936788
S        0.6428788319   -1.2594408548    0.1367729615
C        1.1773513578    0.6122505223   -1.5727057844
H        1.7223020830    1.2543292173   -2.2648757795
C       -0.1979299761    0.7518195526   -1.2505436784
H       -0.8417238561    1.5293911903   -1.6632400523
C       -0.6443911830   -0.1768726444   -0.3278497986
C       -1.9682678870   -0.3203673754    0.2425764928
C       -2.3493998964   -1.0467506354    1.3615916966
H       -1.6417840445   -1.6105019159    1.9708846878
C       -3.7334695523   -0.9572399522    1.6345898868
H       -4.2441336915   -1.4422028628    2.4665102451
S       -3.3384145139    0.4714246607   -0.4847806763
C       -4.4080281529   -0.1659365932    0.7281252853
C       -5.8489323388    0.1234357539    0.7477527826
O       -6.6229968846   -0.3078670339    1.5703085494
O       -6.2073853417    0.9328949911   -0.2695896587
C       -7.5895764083    1.2751176913   -0.3422684091
H       -7.9103977644    1.8008728635    0.5699115678
H       -7.6975824932    1.9282733395   -1.2167117454
H       -8.2098054481    0.3734185426   -0.4592279641
35   
Scan Cycle 12/19 ; Dihedral 1-14-15-16 = 290.00 ; Iteration 13 Energy -1710.56237121
C        4.1049651593   -0.6210747748   -0.0421574735
C        4.0490829006   -0.0408804446    1.2297853203
H        3.1124813944    0.3600744319    1.6333004665
N        5.1364586311    0.0365796609    1.9869288735
C        6.3006001400   -0.4510877449    1.5148140566
H        7.1625725150   -0.3603206299    2.1852040180
C        6.4587487248   -1.0405413402    0.2640966979
H        7.4333284864   -1.4124838006   -0.0595339876
C        5.3231970320   -1.1330607937   -0.5581671668
C        5.0429521584   -1.6341674773   -1.8756744389
H        5.7436846398   -2.1015752523   -2.5636555404
C        3.7088916848   -1.4199038514   -2.1080302413
H        3.0967243822   -1.6586949392   -2.9753254376
N        3.1202135252   -0.8118609305   -1.0058203052
C        1.7900121916   -0.3910821554   -0.9245331090
S        0.6851238710   -1.1535480672    0.1961921152
C        1.1558972081    0.5516555100   -1.6973032700
H        1.6765260793    1.1358536098   -2.4562462025
C       -0.2201761230    0.6869755735   -1.3757463952
H       -0.8866530034    1.4046083560   -1.8556065742
C       -0.6332283782   -0.1499808022   -0.3557109417
C       -1.9426752623   -0.2580812270    0.2533863376
C       -2.2880790749   -0.8689864303    1.4504607775
H       -1.5577806601   -1.3510631714    2.1016411677
C       -3.6686194868   -0.7777785083    1.7402194866
H       -4.1536148892   -1.1814861516    2.6289703077
S       -3.3425095609    0.4247603914   -0.5262200906
C       -4.3764480161   -0.1007829516    0.7688740697
C       -5.8224434626    0.1606713893    0.7862487917
O       -6.5727826073   -0.1955459366    1.6649020992
O       -6.2161352700    0.8502375939   -0.3040554894
C       -7.6063470857    1.1556427503   -0.3852239362
H       -7.9225883744    1.7685378395    0.4725611482
H       -7.7437381823    1.7103843810   -1.3213604417
H       -8.2090154534    0.2346814216   -0.3943113067
35   
Scan Cycle 13/19 ; Dihedral 1-14-15-16 = 300.00 ; Iteration 26 Energy -1710.56285071
C        4.0600067125   -0.6539054964   -0.0680883858
C        3.9841101448   -0.1788696163    1.2463697853
H        3.0432339945    0.1924873767    1.6669856410
N        5.0584317018   -0.1667584539    2.0257331031
C        6.2302673717   -0.6164472420    1.5361084618
H        7.0801203743   -0.5838253199    2.2269834704
C        6.4100057921   -1.0985684434    0.2431792445
H        7.3900247282   -1.4424419256   -0.0946541080
C        5.2890426041   -1.1195872461   -0.6031184289
C        5.0359971548   -1.5053233810   -1.9639846591
H        5.7505170024   -1.9141191774   -2.6746830236
C        3.7065569711   -1.2731895560   -2.2030233059
H        3.1111622324   -1.4432396821   -3.0976338132
N        3.0943922085   -0.7609110227   -1.0651077263
C        1.7598260770   -0.3612069198   -0.9828398946
S        0.6936920681   -1.0528048964    0.2181266508
C        1.0885541190    0.4963435169   -1.8218637675
H        1.5800026975    1.0293982051   -2.6358169599
C       -0.2850885577    0.6245290249   -1.4869836116
H       -0.9767608063    1.2834988733   -2.0131442803
C       -0.6595934201   -0.1289645369   -0.3906725268
C       -1.9515898337   -0.2100817752    0.2571866169
C       -2.2586542257   -0.7361653075    1.5041960322
H       -1.5058298405   -1.1598110996    2.1702102292
C       -3.6329239993   -0.6428331034    1.8212977848
H       -4.0897974937   -0.9870340358    2.7491345319
S       -3.3805835839    0.3944856456   -0.5344911746
C       -4.3748325392   -0.0490460481    0.8214052180
C       -5.8236285853    0.1926522587    0.8561610813
O       -6.5470638813   -0.1083845627    1.7771114005
O       -6.2546349069    0.7948531188   -0.2713890749
C       -7.6509938504    1.0738975466   -0.3389833038
H       -7.9558633118    1.7437553012    0.4794431992
H       -7.8201851409    1.5562763198   -1.3093898718
H       -8.2391049894    0.1464509148   -0.2651424789
35   
Scan Cycle 14/19 ; Dihedral 1-14-15-16 = 310.00 ; Iteration 17 Energy -1710.56305760
C        4.0368237801   -0.6656746731   -0.0810132127
C        3.9435452311   -0.2731444217    1.2599813613
H        3.0019558674    0.0857670676    1.6886931187
N        5.0034090072   -0.3239889497    2.0574689199
C        6.1794469689   -0.7550095081    1.5622391662
H        7.0161659780   -0.7770528235    2.2693444284
C        6.3784633596   -1.1526352588    0.2437574818
H        7.3612494406   -1.4830348311   -0.0993509635
C        5.2733964534   -1.1060408881   -0.6215047780
C        5.0466799757   -1.3981438054   -2.0097704393
H        5.7726384713   -1.7672127963   -2.7304938143
C        3.7247194050   -1.1399854583   -2.2598933381
H        3.1466135585   -1.2535699072   -3.1743405502
N        3.0921746625   -0.6943471206   -1.1045359958
C        1.7497454784   -0.3260940840   -1.0276608258
S        0.7177922513   -0.9449408123    0.2403289850
C        1.0456025547    0.4475691307   -1.9209933344
H        1.5109583420    0.9316666459   -2.7794885278
C       -0.3267699895    0.5653475180   -1.5779408446
H       -1.0415375529    1.1625032501   -2.1454373346
C       -0.6686489417   -0.1076729544   -0.4209508218
C       -1.9480889747   -0.1694297839    0.2520725270
C       -2.2276456023   -0.6293005467    1.5315659538
H       -1.4587243109   -1.0063528398    2.2071629468
C       -3.5977192902   -0.5370819127    1.8662516137
H       -4.0343786694   -0.8356947246    2.8192767615
S       -3.3986081300    0.3710816545   -0.5473095328
C       -4.3645668504   -0.0103574724    0.8477942957
C       -5.8157746960    0.2125244122    0.8933128363
O       -6.5201489115   -0.0460999990    1.8416268734
O       -6.2738598924    0.7441786961   -0.2590079393
C       -7.6750666901    0.9991578594   -0.3185634838
H       -7.9769537755    1.7097227972    0.4659565661
H       -7.8671325321    1.4236087518   -1.3115373823
H       -8.2479714245    0.0691661181   -0.1828606579
35   
Scan Cycle 15/19 ; Dihedral 1-14-15-16 = 320.00 ; Iteration 37 Energy -1710.56287541
C        4.0533406121   -0.6741865377   -0.2275337719
C        3.9619501968   -0.3613557966    1.1350944944
H        3.0278770302   -0.0082414915    1.5834802904
N        5.0167580637   -0.4793710697    1.9323104143
C        6.1880871209   -0.8991386457    1.4178979611
H        7.0201365022   -0.9791069599    2.1263032303
C        6.3876041129   -1.2159428109    0.0778555729
H        7.3667884350   -1.5388326322   -0.2821965476
C        5.2880838906   -1.0976587952   -0.7868098071
C        5.0684879220   -1.2996440830   -2.1918774533
H        5.7946039324   -1.6347608100   -2.9288146395
C        3.7528149112   -1.0083979221   -2.4343220085
H        3.1810922716   -1.0648784306   -3.3576770891
N        3.1168755400   -0.6210658764   -1.2588820265
C        1.7674209345   -0.2835911457   -1.1743626166
S        0.7768247317   -0.8233892651    0.1597371441
C        1.0283482021    0.4140797412   -2.1030768453
H        1.4628129096    0.8493922867   -3.0026564009
C       -0.3382652526    0.5292535888   -1.7382980817
H       -1.0767807808    1.0695680536   -2.3317919593
C       -0.6425241410   -0.0650916524   -0.5294731072
C       -1.9046697527   -0.1057200548    0.1757576963
C       -2.1480617905   -0.4929558302    1.4865552816
H       -1.3585692945   -0.8189637673    2.1650042671
C       -3.5114223416   -0.4010182767    1.8473500892
H       -3.9214654543   -0.6491761919    2.8263286218
S       -3.3816082263    0.3653420615   -0.6195644025
C       -4.3097256812    0.0531397563    0.8181624315
C       -5.7625800342    0.2572434984    0.8846545676
O       -6.4414155452    0.0453464138    1.8628222775
O       -6.2552175623    0.7128319659   -0.2860903668
C       -7.6611898158    0.9434213323   -0.3273479589
H       -7.9564923335    1.6948279556    0.4208054749
H       -7.8826426473    1.3053587911   -1.3388013583
H       -8.2160966728    0.0149463934   -0.1234671386
35   
Scan Cycle 16/19 ; Dihedral 1-14-15-16 = 330.00 ; Iteration 26 Energy -1710.56231114
C        4.0307341398   -0.6775071399   -0.2677592363
C        3.9379687917   -0.4429668781    1.1110280034
H        3.0081048765   -0.1058157527    1.5788274573